REMARK  Name = 
REMARK  17 active torsions:
REMARK  status: ('A' for Active; 'I' for Inactive)
REMARK    1  A    between atoms: N_8  and  C_9
REMARK    2  A    between atoms: C_9  and  C_10
REMARK    3  A    between atoms: C_10  and  O_11
REMARK    4  A    between atoms: C_10  and  C_12
REMARK    5  A    between atoms: C_12  and  C_13
REMARK    6  A    between atoms: C_12  and  N_20
REMARK    7  A    between atoms: C_13  and  C_14
REMARK    8  A    between atoms: C_21  and  C_23
REMARK    9  A    between atoms: C_23  and  C_24
REMARK   10  A    between atoms: C_23  and  N_28
REMARK   11  A    between atoms: C_24  and  C_25
REMARK   12  A    between atoms: C_29  and  C_31
REMARK   13  A    between atoms: C_41  and  C_42
REMARK   14  A    between atoms: N_44  and  C_45
REMARK   15  A    between atoms: C_45  and  C_46
REMARK   16  A    between atoms: C_45  and  C_47
REMARK   17  A    between atoms: C_45  and  C_48
REMARK                            x       y       z     vdW  Elec       q    Type
REMARK                         _______ _______ _______ _____ _____    ______ ____
ROOT
ATOM      1  C   UNL     1      -6.312  -5.370  -3.978  1.00  0.00    +0.111 C 
ENDROOT
BRANCH   1   2
ATOM      2  N   UNL     1      -5.689  -4.059  -4.211  1.00  0.00    -0.308 N 
ATOM      3  C   UNL     1      -4.367  -3.741  -4.365  1.00  0.00    +0.234 C 
ATOM      4  O   UNL     1      -4.078  -2.557  -4.559  1.00  0.00    -0.274 OA
ATOM      5  H   UNL     1      -6.281  -3.235  -4.249  1.00  0.00    +0.149 HD
BRANCH   3   6
ATOM      6  C   UNL     1      -3.279  -4.828  -4.318  1.00  0.00    +0.168 C 
BRANCH   6   7
ATOM      7  N   UNL     1      -2.508  -4.766  -5.558  1.00  0.00    -0.298 N 
ATOM      8  C   UNL     1      -2.947  -5.430  -6.690  1.00  0.00    +0.263 C 
ATOM      9  O   UNL     1      -4.036  -5.999  -6.730  1.00  0.00    -0.269 OA
ATOM     10  H   UNL     1      -1.764  -4.081  -5.637  1.00  0.00    +0.150 HD
BRANCH   8  11
ATOM     11  C   UNL     1      -2.016  -5.428  -7.865  1.00  0.00    +0.126 A 
ATOM     12  C   UNL     1      -0.647  -5.544  -7.663  1.00  0.00    +0.033 A 
ATOM     13  C   UNL     1       0.174  -5.606  -8.782  1.00  0.00    +0.012 A 
ATOM     14  C   UNL     1      -0.390  -5.547 -10.061  1.00  0.00    +0.000 A 
ATOM     15  C   UNL     1       0.409  -5.613 -11.215  1.00  0.00    +0.010 A 
ATOM     16  C   UNL     1      -0.173  -5.549 -12.479  1.00  0.00    +0.001 A 
ATOM     17  C   UNL     1      -1.552  -5.412 -12.592  1.00  0.00    +0.002 A 
ATOM     18  C   UNL     1      -2.343  -5.347 -11.441  1.00  0.00    +0.028 A 
ATOM     19  C   UNL     1      -1.793  -5.422 -10.167  1.00  0.00    +0.072 A 
ATOM     20  N   UNL     1      -2.598  -5.377  -9.089  1.00  0.00    -0.242 NA
ENDBRANCH   8  11
ENDBRANCH   6   7
BRANCH   6  21
ATOM     21  C   UNL     1      -2.410  -4.621  -3.078  1.00  0.00    +0.127 C 
BRANCH  21  22
ATOM     22  C   UNL     1      -2.014  -5.938  -2.448  1.00  0.00    +0.213 C 
ATOM     23  N   UNL     1      -1.178  -5.818  -1.377  1.00  0.00    -0.329 N 
ATOM     24  O   UNL     1      -2.388  -7.040  -2.833  1.00  0.00    -0.276 OA
ATOM     25  H   UNL     1      -0.878  -6.662  -0.905  1.00  0.00    +0.145 HD
ATOM     26  H   UNL     1      -0.880  -4.928  -1.000  1.00  0.00    +0.145 HD
ENDBRANCH  21  22
ENDBRANCH   6  21
ENDBRANCH   3   6
ENDBRANCH   1   2
BRANCH   1  27
ATOM     27  C   UNL     1      -7.210  -5.762  -5.194  1.00  0.00    +0.180 C 
BRANCH  27  28
ATOM     28  O   UNL     1      -8.612  -5.735  -4.876  1.00  0.00    -0.385 OA
ATOM     29  H   UNL     1      -8.849  -4.808  -4.674  1.00  0.00    +0.210 HD
ENDBRANCH  27  28
BRANCH  27  30
ATOM     30  C   UNL     1      -6.850  -7.181  -5.691  1.00  0.00    +0.165 C 
BRANCH  30  38
ATOM     31  C   UNL     1      -7.809  -9.039  -9.100  1.00  0.00    +0.003 C 
ATOM     32  C   UNL     1      -7.122  -9.395 -10.429  1.00  0.00    +0.004 C 
ATOM     33  C   UNL     1      -5.828  -8.624 -10.670  1.00  0.00    +0.000 C 
ATOM     34  C   UNL     1      -6.044  -7.122 -10.533  1.00  0.00    +0.000 C 
ATOM     35  C   UNL     1      -6.640  -6.768  -9.174  1.00  0.00    +0.009 C 
ATOM     36  C   UNL     1      -7.957  -7.518  -8.927  1.00  0.00    +0.038 C 
ATOM     37  C   UNL     1      -8.609  -7.159  -7.589  1.00  0.00    +0.136 C 
ATOM     38  N   UNL     1      -8.009  -7.857  -6.399  1.00  0.00    +0.246 N 
ATOM     39  C   UNL     1      -7.829  -9.372  -6.602  1.00  0.00    +0.152 C 
ATOM     40  C   UNL     1      -7.092  -9.667  -7.894  1.00  0.00    +0.068 C 
ATOM     41  H   UNL     1      -8.743  -7.777  -5.671  1.00  0.00    +0.204 HD
BRANCH  39  42
ATOM     42  C   UNL     1      -7.453 -10.098  -5.294  1.00  0.00    +0.262 C 
ATOM     43  O   UNL     1      -8.332 -10.122  -4.415  1.00  0.00    -0.270 OA
ATOM     44  N   UNL     1      -6.259 -10.585  -4.902  1.00  0.00    -0.306 N 
ATOM     45  H   UNL     1      -6.393 -10.976  -3.972  1.00  0.00    +0.149 HD
BRANCH  44  46
ATOM     46  C   UNL     1      -4.856 -10.742  -5.375  1.00  0.00    +0.026 C 
ATOM     47  C   UNL     1      -4.177  -9.398  -5.659  1.00  0.00    +0.031 C 
ATOM     48  C   UNL     1      -4.070 -11.395  -4.209  1.00  0.00    +0.031 C 
ATOM     49  C   UNL     1      -4.742 -11.694  -6.572  1.00  0.00    +0.031 C 
ENDBRANCH  44  46
ENDBRANCH  39  42
ENDBRANCH  30  38
ENDBRANCH  27  30
ENDBRANCH   1  27
BRANCH   1  50
ATOM     50  C   UNL     1      -7.061  -5.382  -2.628  1.00  0.00    +0.060 C 
BRANCH  50  51
ATOM     51  C   UNL     1      -6.127  -5.269  -1.445  1.00  0.00    -0.046 A 
ATOM     52  C   UNL     1      -5.909  -4.031  -0.824  1.00  0.00    +0.004 A 
ATOM     53  C   UNL     1      -5.040  -3.928   0.263  1.00  0.00    +0.000 A 
ATOM     54  C   UNL     1      -4.380  -5.058   0.739  1.00  0.00    +0.000 A 
ATOM     55  C   UNL     1      -4.586  -6.293   0.127  1.00  0.00    +0.000 A 
ATOM     56  C   UNL     1      -5.453  -6.399  -0.961  1.00  0.00    +0.004 A 
ENDBRANCH  50  51
ENDBRANCH   1  50
TORSDOF 14
