REMARK  Name = 
REMARK  17 active torsions:
REMARK  status: ('A' for Active; 'I' for Inactive)
REMARK    1  A    between atoms: C_1  and  C_2
REMARK    2  A    between atoms: C_2  and  C_3
REMARK    3  A    between atoms: C_2  and  C_4
REMARK    4  A    between atoms: C_2  and  N_5
REMARK    5  A    between atoms: C_6  and  C_8
REMARK    6  A    between atoms: N_10  and  C_11
REMARK    7  A    between atoms: C_11  and  C_12
REMARK    8  A    between atoms: N_20  and  C_21
REMARK    9  A    between atoms: C_21  and  C_22
REMARK   10  A    between atoms: C_22  and  O_23
REMARK   11  A    between atoms: C_22  and  C_24
REMARK   12  A    between atoms: C_24  and  C_25
REMARK   13  A    between atoms: C_25  and  C_26
REMARK   14  A    between atoms: C_25  and  C_33
REMARK   15  A    between atoms: C_26  and  C_27
REMARK   16  A    between atoms: N_35  and  C_36
REMARK   17  A    between atoms: C_44  and  O_45
REMARK                            x       y       z     vdW  Elec       q    Type
REMARK                         _______ _______ _______ _____ _____    ______ ____
ROOT
ATOM      1  C   UNL     1       8.235   6.041  -3.773  1.00  0.00    +0.160 C 
ENDROOT
BRANCH   1   2
ATOM      2  O   UNL     1       9.112   5.286  -2.911  1.00  0.00    -0.387 OA
ATOM      3  H   UNL     1       9.189   4.381  -3.286  1.00  0.00    +0.210 HD
ENDBRANCH   1   2
BRANCH   1   4
ATOM      4  C   UNL     1       7.788   7.255  -2.932  1.00  0.00    +0.164 C 
BRANCH   4  10
ATOM      5  C   UNL     1       9.762   8.935  -2.811  1.00  0.00    +0.198 C 
ATOM      6  C   UNL     1      10.935   9.464  -1.963  1.00  0.00    +0.197 C 
ATOM      7  N   UNL     1      10.523   9.771  -0.517  1.00  0.00    +0.247 N 
ATOM      8  C   UNL     1       9.854   8.562   0.143  1.00  0.00    +0.183 C 
ATOM      9  C   UNL     1       8.651   8.038  -0.677  1.00  0.00    +0.184 C 
ATOM     10  N   UNL     1       9.027   7.750  -2.126  1.00  0.00    +0.253 N 
ATOM     11  H   UNL     1      11.402   9.915   0.008  1.00  0.00    +0.204 HD
ATOM     12  H   UNL     1       9.624   6.896  -2.143  1.00  0.00    +0.205 HD
BRANCH   5  14
ATOM     13  N   UNL     1      11.078   8.075  -4.875  1.00  0.00    -0.306 N 
ATOM     14  C   UNL     1      10.051   8.731  -4.303  1.00  0.00    +0.267 C 
ATOM     15  O   UNL     1       9.166   9.105  -5.085  1.00  0.00    -0.269 OA
ATOM     16  H   UNL     1      10.945   8.126  -5.888  1.00  0.00    +0.149 HD
BRANCH  13  18
ATOM     17  C   UNL     1      12.217   6.381  -3.412  1.00  0.00    +0.031 C 
ATOM     18  C   UNL     1      12.365   7.423  -4.524  1.00  0.00    +0.026 C 
ATOM     19  C   UNL     1      13.435   8.471  -4.193  1.00  0.00    +0.031 C 
ATOM     20  C   UNL     1      12.846   6.663  -5.784  1.00  0.00    +0.031 C 
ENDBRANCH  13  18
ENDBRANCH   5  14
BRANCH   7  21
ATOM     21  C   UNL     1       9.789  11.101  -0.352  1.00  0.00    +0.169 C 
BRANCH  21  22
ATOM     22  C   UNL     1       9.715  11.557   1.069  1.00  0.00    +0.015 A 
ATOM     23  C   UNL     1      10.849  11.996   1.765  1.00  0.00    +0.012 A 
ATOM     24  C   UNL     1      10.735  12.376   3.101  1.00  0.00    +0.020 A 
ATOM     25  C   UNL     1       9.493  12.295   3.704  1.00  0.00    +0.111 A 
ATOM     26  N   UNL     1       8.385  11.873   3.057  1.00  0.00    -0.263 NA
ATOM     27  C   UNL     1       8.508  11.544   1.760  1.00  0.00    +0.119 A 
ENDBRANCH  21  22
ENDBRANCH   7  21
ENDBRANCH   4  10
ENDBRANCH   1   4
BRANCH   1  28
ATOM     28  C   UNL     1       7.085   5.166  -4.280  1.00  0.00    +0.049 C 
BRANCH  28  29
ATOM     29  C   UNL     1       6.089   5.899  -5.192  1.00  0.00    +0.082 C 
BRANCH  29  30
ATOM     30  C   UNL     1       4.820   5.076  -5.388  1.00  0.00    +0.217 C 
ATOM     31  O   UNL     1       3.742   5.522  -5.000  1.00  0.00    -0.275 OA
ATOM     32  N   UNL     1       4.974   3.851  -5.985  1.00  0.00    -0.306 N 
ATOM     33  H   UNL     1       5.877   3.597  -6.363  1.00  0.00    +0.149 HD
BRANCH  32  34
ATOM     34  C   UNL     1       3.874   2.987  -6.392  1.00  0.00    +0.132 C 
ATOM     35  C   UNL     1       2.911   2.599  -5.307  1.00  0.00    -0.022 A 
ATOM     36  C   UNL     1       3.182   2.226  -3.999  1.00  0.00    +0.006 A 
ATOM     37  C   UNL     1       2.118   1.835  -3.183  1.00  0.00    +0.000 A 
ATOM     38  C   UNL     1       0.807   1.806  -3.683  1.00  0.00    +0.000 A 
ATOM     39  C   UNL     1       0.543   2.164  -5.006  1.00  0.00    +0.004 A 
ATOM     40  C   UNL     1       1.602   2.560  -5.806  1.00  0.00    -0.040 A 
ATOM     41  C   UNL     1       1.551   2.913  -7.265  1.00  0.00    +0.069 C 
ATOM     42  C   UNL     1       2.929   3.564  -7.495  1.00  0.00    +0.143 C 
BRANCH  42  43
ATOM     43  O   UNL     1       2.799   4.991  -7.445  1.00  0.00    -0.389 OA
ATOM     44  H   UNL     1       2.624   5.223  -6.506  1.00  0.00    +0.210 HD
ENDBRANCH  42  43
ENDBRANCH  32  34
ENDBRANCH  29  30
BRANCH  29  45
ATOM     45  C   UNL     1       6.644   6.468  -6.514  1.00  0.00    +0.048 C 
BRANCH  45  46
ATOM     46  C   UNL     1       7.195   5.484  -7.515  1.00  0.00    -0.047 A 
ATOM     47  C   UNL     1       8.502   4.988  -7.421  1.00  0.00    +0.003 A 
ATOM     48  C   UNL     1       8.979   4.064  -8.354  1.00  0.00    +0.000 A 
ATOM     49  C   UNL     1       8.160   3.634  -9.395  1.00  0.00    +0.000 A 
ATOM     50  C   UNL     1       6.866   4.134  -9.512  1.00  0.00    +0.000 A 
ATOM     51  C   UNL     1       6.389   5.057  -8.582  1.00  0.00    +0.003 A 
ENDBRANCH  45  46
ENDBRANCH  29  45
ENDBRANCH  28  29
ENDBRANCH   1  28
TORSDOF 14
