REMARK  Name = 
REMARK  16 active torsions:
REMARK  status: ('A' for Active; 'I' for Inactive)
REMARK    1  A    between atoms: C_6  and  O_7
REMARK    2  A    between atoms: O_7  and  C_8
REMARK    3  A    between atoms: N_10  and  C_11
REMARK    4  A    between atoms: C_11  and  C_12
REMARK    5  A    between atoms: C_11  and  C_19
REMARK    6  A    between atoms: C_12  and  C_13
REMARK    7  A    between atoms: C_19  and  O_20
REMARK    8  A    between atoms: C_19  and  C_21
REMARK    9  A    between atoms: C_21  and  N_22
REMARK   10  A    between atoms: N_22  and  C_23
REMARK   11  A    between atoms: N_22  and  S_27
REMARK   12  A    between atoms: C_23  and  C_24
REMARK   13  A    between atoms: C_24  and  C_25
REMARK   14  A    between atoms: C_24  and  C_26
REMARK   15  A    between atoms: S_27  and  C_30
REMARK   16  A    between atoms: C_33  and  N_34
REMARK                            x       y       z     vdW  Elec       q    Type
REMARK                         _______ _______ _______ _____ _____    ______ ____
ROOT
ATOM      1  C   UNL     1       2.986  -0.314   0.515  1.00  0.00    +0.110 C 
ENDROOT
BRANCH   1   4
ATOM      2  C   UNL     1       1.933  -1.572  -1.407  1.00  0.00    +0.401 C 
ATOM      3  O   UNL     1       1.964  -1.923  -2.578  1.00  0.00    -0.226 OA
ATOM      4  N   UNL     1       2.884  -0.752  -0.878  1.00  0.00    -0.275 N 
ATOM      5  H   UNL     1       3.589  -0.451  -1.539  1.00  0.00    +0.152 HD
BRANCH   2   6
ATOM      6  O   UNL     1       0.971  -1.921  -0.515  1.00  0.00    -0.444 OA
BRANCH   6  12
ATOM      7  C   UNL     1      -0.677  -4.052   0.936  1.00  0.00    +0.257 C 
ATOM      8  O   UNL     1      -0.201  -3.374   2.099  1.00  0.00    -0.351 OA
ATOM      9  C   UNL     1      -0.620  -2.006   2.049  1.00  0.00    +0.163 C 
ATOM     10  C   UNL     1      -1.537  -1.846   0.854  1.00  0.00    +0.040 C 
ATOM     11  C   UNL     1      -1.178  -3.005  -0.038  1.00  0.00    +0.090 C 
ATOM     12  C   UNL     1      -0.013  -2.848  -1.005  1.00  0.00    +0.212 C 
ATOM     13  C   UNL     1       0.549  -4.263  -1.022  1.00  0.00    +0.208 C 
ATOM     14  O   UNL     1       0.359  -4.797   0.297  1.00  0.00    -0.347 OA
ENDBRANCH   6  12
ENDBRANCH   2   6
ENDBRANCH   1   4
BRANCH   1  15
ATOM     15  C   UNL     1       4.411  -0.550   1.076  1.00  0.00    +0.060 C 
BRANCH  15  16
ATOM     16  C   UNL     1       5.520   0.185   0.356  1.00  0.00    -0.046 A 
ATOM     17  C   UNL     1       6.165  -0.396  -0.745  1.00  0.00    +0.004 A 
ATOM     18  C   UNL     1       7.172   0.294  -1.422  1.00  0.00    +0.000 A 
ATOM     19  C   UNL     1       7.550   1.567  -1.001  1.00  0.00    +0.000 A 
ATOM     20  C   UNL     1       6.927   2.149   0.101  1.00  0.00    +0.000 A 
ATOM     21  C   UNL     1       5.919   1.461   0.778  1.00  0.00    +0.004 A 
ENDBRANCH  15  16
ENDBRANCH   1  15
BRANCH   1  22
ATOM     22  C   UNL     1       2.478   1.136   0.736  1.00  0.00    +0.151 C 
BRANCH  22  23
ATOM     23  O   UNL     1       2.363   1.370   2.152  1.00  0.00    -0.389 OA
ATOM     24  H   UNL     1       1.460   1.097   2.422  1.00  0.00    +0.210 HD
ENDBRANCH  22  23
BRANCH  22  25
ATOM     25  C   UNL     1       1.135   1.403   0.027  1.00  0.00    +0.142 C 
BRANCH  25  26
ATOM     26  N   UNL     1       0.545   2.686   0.484  1.00  0.00    -0.174 NA
BRANCH  26  27
ATOM     27  S   UNL     1      -0.775   2.574   1.530  1.00  0.00    +0.061 S 
ATOM     28  O   UNL     1      -1.979   2.631   0.731  1.00  0.00    -0.153 OA
ATOM     29  O   UNL     1      -0.520   1.450   2.412  1.00  0.00    -0.153 OA
BRANCH  27  30
ATOM     30  C   UNL     1      -0.678   4.045   2.515  1.00  0.00    +0.106 A 
ATOM     31  C   UNL     1       0.387   4.209   3.401  1.00  0.00    +0.030 A 
ATOM     32  C   UNL     1       0.450   5.359   4.192  1.00  0.00    +0.024 A 
ATOM     33  C   UNL     1      -0.530   6.352   4.095  1.00  0.00    +0.025 A 
ATOM     34  C   UNL     1      -1.606   6.156   3.223  1.00  0.00    +0.024 A 
ATOM     35  C   UNL     1      -1.683   5.010   2.427  1.00  0.00    +0.030 A 
BRANCH  33  36
ATOM     36  N   UNL     1      -0.494   7.458   4.925  1.00  0.00    -0.358 N 
ATOM     37  H   UNL     1       0.331   7.646   5.478  1.00  0.00    +0.142 HD
ATOM     38  H   UNL     1      -1.142   8.220   4.778  1.00  0.00    +0.142 HD
ENDBRANCH  33  36
ENDBRANCH  27  30
ENDBRANCH  26  27
BRANCH  26  39
ATOM     39  C   UNL     1       0.787   3.909  -0.311  1.00  0.00    +0.112 C 
BRANCH  39  40
ATOM     40  C   UNL     1       0.542   3.798  -1.824  1.00  0.00    -0.001 C 
ATOM     41  C   UNL     1      -0.890   3.392  -2.167  1.00  0.00    +0.008 C 
ATOM     42  C   UNL     1       0.868   5.141  -2.489  1.00  0.00    +0.008 C 
ENDBRANCH  39  40
ENDBRANCH  26  39
ENDBRANCH  25  26
ENDBRANCH  22  25
ENDBRANCH   1  22
TORSDOF 14
